<?xml version="1.0" encoding="UTF-8"?>

<!-- generated on 2026-05-10T23:54:02.109913+05:30 by Eclipse SUMO sumo 1.25.0
<sumoConfiguration xmlns:xsi="http://www.w3.org/2001/XMLSchema-instance" xsi:noNamespaceSchemaLocation="http://sumo.dlr.de/xsd/sumoConfiguration.xsd">

    <input>
        <net-file value="Traci.net.xml"/>
        <route-files value="Traci.rou.xml"/>
        <additional-files value="Traci.add.xml"/>
    </input>

    <output>
        <vehroute-output value="true"/>
    </output>

</sumoConfiguration>
-->

<routes xmlns:xsi="http://www.w3.org/2001/XMLSchema-instance" xsi:noNamespaceSchemaLocation="http://sumo.dlr.de/xsd/routes_file.xsd">
    <vehicle id="f_0.0" depart="0.00" arrival="47.00">
        <route edges="Node4_5_EB Node5_6_EB Node3_6_NB Node2_3_WB Node1_2_WB"/>
    </vehicle>

    <vehicle id="f_0.1" depart="3.00" arrival="49.00">
        <route edges="Node4_5_EB Node5_6_EB Node3_6_NB Node2_3_WB Node1_2_WB"/>
    </vehicle>

    <vehicle id="f_2.0" depart="0.00" arrival="51.00">
        <route edges="Node1_2_EB Node2_3_EB Node3_6_SB Node5_6_WB Node4_5_WB"/>
    </vehicle>

    <vehicle id="f_1.1" depart="3.00" arrival="75.00">
        <route edges="Node2_7_SB Node2_5_SB Node4_5_WB Node1_4_NB"/>
    </vehicle>

    <vehicle id="f_1.0" depart="0.00" arrival="77.00">
        <route edges="Node2_7_SB Node2_5_SB Node4_5_WB Node1_4_NB"/>
    </vehicle>

    <vehicle id="f_1.3" depart="9.00" arrival="78.00">
        <route edges="Node2_7_SB Node2_5_SB Node4_5_WB Node1_4_NB"/>
    </vehicle>

    <vehicle id="f_1.6" depart="18.00" arrival="80.00">
        <route edges="Node2_7_SB Node2_5_SB Node4_5_WB Node1_4_NB"/>
    </vehicle>

    <vehicle id="f_1.2" depart="6.00" arrival="81.00">
        <route edges="Node2_7_SB Node2_5_SB Node4_5_WB Node1_4_NB"/>
    </vehicle>

    <vehicle id="f_1.4" depart="12.00" arrival="83.00">
        <route edges="Node2_7_SB Node2_5_SB Node4_5_WB Node1_4_NB"/>
    </vehicle>

    <vehicle id="f_1.7" depart="21.00" arrival="83.00">
        <route edges="Node2_7_SB Node2_5_SB Node4_5_WB Node1_4_NB"/>
    </vehicle>

    <vehicle id="f_1.9" depart="27.00" arrival="85.00">
        <route edges="Node2_7_SB Node2_5_SB Node4_5_WB Node1_4_NB"/>
    </vehicle>

    <vehicle id="f_1.10" depart="30.00" arrival="86.00">
        <route edges="Node2_7_SB Node2_5_SB Node4_5_WB Node1_4_NB"/>
    </vehicle>

    <vehicle id="f_1.5" depart="15.00" arrival="88.00">
        <route edges="Node2_7_SB Node2_5_SB Node4_5_WB Node1_4_NB"/>
    </vehicle>

    <vehicle id="f_1.12" depart="36.00" arrival="88.00">
        <route edges="Node2_7_SB Node2_5_SB Node4_5_WB Node1_4_NB"/>
    </vehicle>

    <vehicle id="f_1.8" depart="24.00" arrival="91.00">
        <route edges="Node2_7_SB Node2_5_SB Node4_5_WB Node1_4_NB"/>
    </vehicle>

    <vehicle id="f_1.14" depart="42.00" arrival="92.00">
        <route edges="Node2_7_SB Node2_5_SB Node4_5_WB Node1_4_NB"/>
    </vehicle>

    <vehicle id="f_1.11" depart="33.00" arrival="94.00">
        <route edges="Node2_7_SB Node2_5_SB Node4_5_WB Node1_4_NB"/>
    </vehicle>

    <vehicle id="f_1.15" depart="45.00" arrival="94.00">
        <route edges="Node2_7_SB Node2_5_SB Node4_5_WB Node1_4_NB"/>
    </vehicle>

    <vehicle id="f_1.13" depart="39.00" arrival="97.00">
        <route edges="Node2_7_SB Node2_5_SB Node4_5_WB Node1_4_NB"/>
    </vehicle>

    <vehicle id="f_1.17" depart="51.00" arrival="97.00">
        <route edges="Node2_7_SB Node2_5_SB Node4_5_WB Node1_4_NB"/>
    </vehicle>

    <vehicle id="f_1.16" depart="48.00" arrival="101.00">
        <route edges="Node2_7_SB Node2_5_SB Node4_5_WB Node1_4_NB"/>
    </vehicle>

    <vehicle id="f_1.18" depart="53.00" arrival="101.00">
        <route edges="Node2_7_SB Node2_5_SB Node4_5_WB Node1_4_NB"/>
    </vehicle>

    <vehicle id="f_0.2" depart="6.00" arrival="102.00">
        <route edges="Node4_5_EB Node5_6_EB Node3_6_NB Node2_3_WB Node1_2_WB"/>
    </vehicle>

    <vehicle id="f_0.4" depart="12.00" arrival="102.00">
        <route edges="Node4_5_EB Node5_6_EB Node3_6_NB Node2_3_WB Node1_2_WB"/>
    </vehicle>

    <vehicle id="f_2.2" depart="6.00" arrival="103.00">
        <route edges="Node1_2_EB Node2_3_EB Node3_6_SB Node5_6_WB Node4_5_WB"/>
    </vehicle>

    <vehicle id="f_2.3" depart="9.00" arrival="103.00">
        <route edges="Node1_2_EB Node2_3_EB Node3_6_SB Node5_6_WB Node4_5_WB"/>
    </vehicle>

    <vehicle id="f_0.6" depart="18.00" arrival="103.00">
        <route edges="Node4_5_EB Node5_6_EB Node3_6_NB Node2_3_WB Node1_2_WB"/>
    </vehicle>

    <vehicle id="f_1.20" depart="60.00" arrival="103.00">
        <route edges="Node2_7_SB Node2_5_SB Node4_5_WB Node1_4_NB"/>
    </vehicle>

    <vehicle id="f_2.1" depart="3.00" arrival="104.00">
        <route edges="Node1_2_EB Node2_3_EB Node3_6_SB Node5_6_WB Node4_5_WB"/>
    </vehicle>

    <vehicle id="f_0.5" depart="15.00" arrival="104.00">
        <route edges="Node4_5_EB Node5_6_EB Node3_6_NB Node2_3_WB Node1_2_WB"/>
    </vehicle>

    <vehicle id="f_1.19" depart="57.00" arrival="104.00">
        <route edges="Node2_7_SB Node2_5_SB Node4_5_WB Node1_4_NB"/>
    </vehicle>

    <vehicle id="f_2.4" depart="12.00" arrival="105.00">
        <route edges="Node1_2_EB Node2_3_EB Node3_6_SB Node5_6_WB Node4_5_WB"/>
    </vehicle>

    <vehicle id="f_2.5" depart="15.00" arrival="105.00">
        <route edges="Node1_2_EB Node2_3_EB Node3_6_SB Node5_6_WB Node4_5_WB"/>
    </vehicle>

    <vehicle id="f_0.10" depart="31.00" arrival="105.00">
        <route edges="Node4_5_EB Node5_6_EB Node3_6_NB Node2_3_WB Node1_2_WB"/>
    </vehicle>

    <vehicle id="f_0.3" depart="9.00" arrival="106.00">
        <route edges="Node4_5_EB Node5_6_EB Node3_6_NB Node2_3_WB Node1_2_WB"/>
    </vehicle>

    <vehicle id="f_2.6" depart="18.00" arrival="106.00">
        <route edges="Node1_2_EB Node2_3_EB Node3_6_SB Node5_6_WB Node4_5_WB"/>
    </vehicle>

    <vehicle id="f_0.9" depart="27.00" arrival="106.00">
        <route edges="Node4_5_EB Node5_6_EB Node3_6_NB Node2_3_WB Node1_2_WB"/>
    </vehicle>

    <vehicle id="f_0.7" depart="21.00" arrival="107.00">
        <route edges="Node4_5_EB Node5_6_EB Node3_6_NB Node2_3_WB Node1_2_WB"/>
    </vehicle>

    <vehicle id="f_2.8" depart="24.00" arrival="107.00">
        <route edges="Node1_2_EB Node2_3_EB Node3_6_SB Node5_6_WB Node4_5_WB"/>
    </vehicle>

    <vehicle id="f_2.10" depart="30.00" arrival="107.00">
        <route edges="Node1_2_EB Node2_3_EB Node3_6_SB Node5_6_WB Node4_5_WB"/>
    </vehicle>

    <vehicle id="f_2.7" depart="21.00" arrival="108.00">
        <route edges="Node1_2_EB Node2_3_EB Node3_6_SB Node5_6_WB Node4_5_WB"/>
    </vehicle>

    <vehicle id="f_2.9" depart="27.00" arrival="109.00">
        <route edges="Node1_2_EB Node2_3_EB Node3_6_SB Node5_6_WB Node4_5_WB"/>
    </vehicle>

    <vehicle id="f_0.8" depart="24.00" arrival="110.00">
        <route edges="Node4_5_EB Node5_6_EB Node3_6_NB Node2_3_WB Node1_2_WB"/>
    </vehicle>

    <vehicle id="f_0.11" depart="34.00" arrival="127.00">
        <route edges="Node4_5_EB Node5_6_EB Node3_6_NB Node2_3_WB Node1_2_WB"/>
    </vehicle>

    <vehicle id="f_0.14" depart="44.00" arrival="128.00">
        <route edges="Node4_5_EB Node5_6_EB Node3_6_NB Node2_3_WB Node1_2_WB"/>
    </vehicle>

    <vehicle id="f_0.17" depart="53.00" arrival="128.00">
        <route edges="Node4_5_EB Node5_6_EB Node3_6_NB Node2_3_WB Node1_2_WB"/>
    </vehicle>

    <vehicle id="f_2.12" depart="36.00" arrival="130.00">
        <route edges="Node1_2_EB Node2_3_EB Node3_6_SB Node5_6_WB Node4_5_WB"/>
    </vehicle>

    <vehicle id="f_2.14" depart="42.00" arrival="130.00">
        <route edges="Node1_2_EB Node2_3_EB Node3_6_SB Node5_6_WB Node4_5_WB"/>
    </vehicle>

    <vehicle id="f_2.11" depart="33.00" arrival="132.00">
        <route edges="Node1_2_EB Node2_3_EB Node3_6_SB Node5_6_WB Node4_5_WB"/>
    </vehicle>

    <vehicle id="f_0.12" depart="37.00" arrival="132.00">
        <route edges="Node4_5_EB Node5_6_EB Node3_6_NB Node2_3_WB Node1_2_WB"/>
    </vehicle>

    <vehicle id="f_2.17" depart="51.00" arrival="132.00">
        <route edges="Node1_2_EB Node2_3_EB Node3_6_SB Node5_6_WB Node4_5_WB"/>
    </vehicle>

    <vehicle id="f_0.20" depart="62.00" arrival="133.00">
        <route edges="Node4_5_EB Node5_6_EB Node3_6_NB Node2_3_WB Node1_2_WB"/>
    </vehicle>

    <vehicle id="f_0.15" depart="47.00" arrival="134.00">
        <route edges="Node4_5_EB Node5_6_EB Node3_6_NB Node2_3_WB Node1_2_WB"/>
    </vehicle>

    <vehicle id="f_0.18" depart="56.00" arrival="136.00">
        <route edges="Node4_5_EB Node5_6_EB Node3_6_NB Node2_3_WB Node1_2_WB"/>
    </vehicle>

    <vehicle id="f_2.20" depart="60.00" arrival="136.00">
        <route edges="Node1_2_EB Node2_3_EB Node3_6_SB Node5_6_WB Node4_5_WB"/>
    </vehicle>

    <vehicle id="f_0.23" depart="71.00" arrival="136.00">
        <route edges="Node4_5_EB Node5_6_EB Node3_6_NB Node2_3_WB Node1_2_WB"/>
    </vehicle>

    <vehicle id="f_0.13" depart="40.00" arrival="137.00">
        <route edges="Node4_5_EB Node5_6_EB Node3_6_NB Node2_3_WB Node1_2_WB"/>
    </vehicle>

    <vehicle id="f_2.13" depart="39.00" arrival="137.00">
        <route edges="Node1_2_EB Node2_3_EB Node3_6_SB Node5_6_WB Node4_5_WB"/>
    </vehicle>

    <vehicle id="f_2.15" depart="45.00" arrival="138.00">
        <route edges="Node1_2_EB Node2_3_EB Node3_6_SB Node5_6_WB Node4_5_WB"/>
    </vehicle>

    <vehicle id="f_0.21" depart="65.00" arrival="138.00">
        <route edges="Node4_5_EB Node5_6_EB Node3_6_NB Node2_3_WB Node1_2_WB"/>
    </vehicle>

    <vehicle id="f_2.23" depart="69.00" arrival="139.00">
        <route edges="Node1_2_EB Node2_3_EB Node3_6_SB Node5_6_WB Node4_5_WB"/>
    </vehicle>

    <vehicle id="f_0.26" depart="80.00" arrival="140.00">
        <route edges="Node4_5_EB Node5_6_EB Node3_6_NB Node2_3_WB Node1_2_WB"/>
    </vehicle>

    <vehicle id="f_0.16" depart="50.00" arrival="141.00">
        <route edges="Node4_5_EB Node5_6_EB Node3_6_NB Node2_3_WB Node1_2_WB"/>
    </vehicle>

    <vehicle id="f_2.18" depart="54.00" arrival="141.00">
        <route edges="Node1_2_EB Node2_3_EB Node3_6_SB Node5_6_WB Node4_5_WB"/>
    </vehicle>

    <vehicle id="f_2.26" depart="78.00" arrival="141.00">
        <route edges="Node1_2_EB Node2_3_EB Node3_6_SB Node5_6_WB Node4_5_WB"/>
    </vehicle>

    <vehicle id="f_0.29" depart="89.00" arrival="141.00">
        <route edges="Node4_5_EB Node5_6_EB Node3_6_NB Node2_3_WB Node1_2_WB"/>
    </vehicle>

    <vehicle id="f_0.24" depart="74.00" arrival="142.00">
        <route edges="Node4_5_EB Node5_6_EB Node3_6_NB Node2_3_WB Node1_2_WB"/>
    </vehicle>

    <vehicle id="f_0.19" depart="59.00" arrival="143.00">
        <route edges="Node4_5_EB Node5_6_EB Node3_6_NB Node2_3_WB Node1_2_WB"/>
    </vehicle>

    <vehicle id="f_2.16" depart="48.00" arrival="144.00">
        <route edges="Node1_2_EB Node2_3_EB Node3_6_SB Node5_6_WB Node4_5_WB"/>
    </vehicle>

    <vehicle id="f_1.22" depart="66.00" arrival="157.00">
        <route edges="Node2_7_SB Node2_5_SB Node4_5_WB Node1_4_NB"/>
    </vehicle>

    <vehicle id="f_1.21" depart="63.00" arrival="158.00">
        <route edges="Node2_7_SB Node2_5_SB Node4_5_WB Node1_4_NB"/>
    </vehicle>

    <vehicle id="f_1.24" depart="72.00" arrival="163.00">
        <route edges="Node2_7_SB Node2_5_SB Node4_5_WB Node1_4_NB"/>
    </vehicle>

    <vehicle id="f_1.23" depart="69.00" arrival="165.00">
        <route edges="Node2_7_SB Node2_5_SB Node4_5_WB Node1_4_NB"/>
    </vehicle>

    <vehicle id="f_1.26" depart="78.00" arrival="166.00">
        <route edges="Node2_7_SB Node2_5_SB Node4_5_WB Node1_4_NB"/>
    </vehicle>

    <vehicle id="f_1.25" depart="75.00" arrival="168.00">
        <route edges="Node2_7_SB Node2_5_SB Node4_5_WB Node1_4_NB"/>
    </vehicle>

    <vehicle id="f_1.27" depart="81.00" arrival="171.00">
        <route edges="Node2_7_SB Node2_5_SB Node4_5_WB Node1_4_NB"/>
    </vehicle>

    <vehicle id="f_1.30" depart="90.00" arrival="173.00">
        <route edges="Node2_7_SB Node2_5_SB Node4_5_WB Node1_4_NB"/>
    </vehicle>

    <vehicle id="f_1.33" depart="99.00" arrival="173.00">
        <route edges="Node2_7_SB Node2_5_SB Node4_5_WB Node1_4_NB"/>
    </vehicle>

    <vehicle id="f_1.29" depart="87.00" arrival="175.00">
        <route edges="Node2_7_SB Node2_5_SB Node4_5_WB Node1_4_NB"/>
    </vehicle>

    <vehicle id="f_1.28" depart="84.00" arrival="177.00">
        <route edges="Node2_7_SB Node2_5_SB Node4_5_WB Node1_4_NB"/>
    </vehicle>

    <vehicle id="f_1.31" depart="93.00" arrival="177.00">
        <route edges="Node2_7_SB Node2_5_SB Node4_5_WB Node1_4_NB"/>
    </vehicle>

    <vehicle id="f_1.32" depart="96.00" arrival="180.00">
        <route edges="Node2_7_SB Node2_5_SB Node4_5_WB Node1_4_NB"/>
    </vehicle>

    <vehicle id="f_1.35" depart="105.00" arrival="180.00">
        <route edges="Node2_7_SB Node2_5_SB Node4_5_WB Node1_4_NB"/>
    </vehicle>

    <vehicle id="f_1.34" depart="102.00" arrival="183.00">
        <route edges="Node2_7_SB Node2_5_SB Node4_5_WB Node1_4_NB"/>
    </vehicle>

    <vehicle id="f_1.36" depart="108.00" arrival="183.00">
        <route edges="Node2_7_SB Node2_5_SB Node4_5_WB Node1_4_NB"/>
    </vehicle>

    <vehicle id="f_1.37" depart="111.00" arrival="185.00">
        <route edges="Node2_7_SB Node2_5_SB Node4_5_WB Node1_4_NB"/>
    </vehicle>

    <vehicle id="f_1.38" depart="114.00" arrival="186.00">
        <route edges="Node2_7_SB Node2_5_SB Node4_5_WB Node1_4_NB"/>
    </vehicle>

    <vehicle id="f_1.40" depart="120.00" arrival="186.00">
        <route edges="Node2_7_SB Node2_5_SB Node4_5_WB Node1_4_NB"/>
    </vehicle>

    <vehicle id="f_1.41" depart="123.00" arrival="188.00">
        <route edges="Node2_7_SB Node2_5_SB Node4_5_WB Node1_4_NB"/>
    </vehicle>

    <vehicle id="f_1.39" depart="117.00" arrival="189.00">
        <route edges="Node2_7_SB Node2_5_SB Node4_5_WB Node1_4_NB"/>
    </vehicle>

    <vehicle id="f_0.27" depart="83.00" arrival="192.00">
        <route edges="Node4_5_EB Node5_6_EB Node3_6_NB Node2_3_WB Node1_2_WB"/>
    </vehicle>

    <vehicle id="f_1.43" depart="130.00" arrival="192.00">
        <route edges="Node2_7_SB Node2_5_SB Node4_5_WB Node1_4_NB"/>
    </vehicle>

    <vehicle id="f_1.45" depart="136.00" arrival="192.00">
        <route edges="Node2_7_SB Node2_5_SB Node4_5_WB Node1_4_NB"/>
    </vehicle>

    <vehicle id="f_2.19" depart="57.00" arrival="193.00">
        <route edges="Node1_2_EB Node2_3_EB Node3_6_SB Node5_6_WB Node4_5_WB"/>
    </vehicle>

    <vehicle id="f_0.22" depart="68.00" arrival="193.00">
        <route edges="Node4_5_EB Node5_6_EB Node3_6_NB Node2_3_WB Node1_2_WB"/>
    </vehicle>

    <vehicle id="f_2.27" depart="83.00" arrival="193.00">
        <route edges="Node1_2_EB Node2_3_EB Node3_6_SB Node5_6_WB Node4_5_WB"/>
    </vehicle>

    <vehicle id="f_0.30" depart="92.00" arrival="193.00">
        <route edges="Node4_5_EB Node5_6_EB Node3_6_NB Node2_3_WB Node1_2_WB"/>
    </vehicle>

    <vehicle id="f_2.21" depart="63.00" arrival="194.00">
        <route edges="Node1_2_EB Node2_3_EB Node3_6_SB Node5_6_WB Node4_5_WB"/>
    </vehicle>

    <vehicle id="f_0.28" depart="86.00" arrival="194.00">
        <route edges="Node4_5_EB Node5_6_EB Node3_6_NB Node2_3_WB Node1_2_WB"/>
    </vehicle>

    <vehicle id="f_0.33" depart="101.00" arrival="194.00">
        <route edges="Node4_5_EB Node5_6_EB Node3_6_NB Node2_3_WB Node1_2_WB"/>
    </vehicle>

    <vehicle id="f_1.42" depart="127.00" arrival="194.00">
        <route edges="Node2_7_SB Node2_5_SB Node4_5_WB Node1_4_NB"/>
    </vehicle>

    <vehicle id="f_1.48" depart="145.00" arrival="194.00">
        <route edges="Node2_7_SB Node2_5_SB Node4_5_WB Node1_4_NB"/>
    </vehicle>

    <vehicle id="f_2.22" depart="66.00" arrival="195.00">
        <route edges="Node1_2_EB Node2_3_EB Node3_6_SB Node5_6_WB Node4_5_WB"/>
    </vehicle>

    <vehicle id="f_0.25" depart="77.00" arrival="195.00">
        <route edges="Node4_5_EB Node5_6_EB Node3_6_NB Node2_3_WB Node1_2_WB"/>
    </vehicle>

    <vehicle id="f_2.29" depart="91.00" arrival="195.00">
        <route edges="Node1_2_EB Node2_3_EB Node3_6_SB Node5_6_WB Node4_5_WB"/>
    </vehicle>

    <vehicle id="f_2.24" depart="72.00" arrival="196.00">
        <route edges="Node1_2_EB Node2_3_EB Node3_6_SB Node5_6_WB Node4_5_WB"/>
    </vehicle>

    <vehicle id="f_0.32" depart="98.00" arrival="196.00">
        <route edges="Node4_5_EB Node5_6_EB Node3_6_NB Node2_3_WB Node1_2_WB"/>
    </vehicle>

    <vehicle id="f_0.35" depart="107.00" arrival="196.00">
        <route edges="Node4_5_EB Node5_6_EB Node3_6_NB Node2_3_WB Node1_2_WB"/>
    </vehicle>

    <vehicle id="f_1.44" depart="133.00" arrival="196.00">
        <route edges="Node2_7_SB Node2_5_SB Node4_5_WB Node1_4_NB"/>
    </vehicle>

    <vehicle id="f_2.25" depart="75.00" arrival="197.00">
        <route edges="Node1_2_EB Node2_3_EB Node3_6_SB Node5_6_WB Node4_5_WB"/>
    </vehicle>

    <vehicle id="f_2.28" depart="88.00" arrival="197.00">
        <route edges="Node1_2_EB Node2_3_EB Node3_6_SB Node5_6_WB Node4_5_WB"/>
    </vehicle>

    <vehicle id="f_0.31" depart="95.00" arrival="197.00">
        <route edges="Node4_5_EB Node5_6_EB Node3_6_NB Node2_3_WB Node1_2_WB"/>
    </vehicle>

    <vehicle id="f_2.31" depart="97.00" arrival="197.00">
        <route edges="Node1_2_EB Node2_3_EB Node3_6_SB Node5_6_WB Node4_5_WB"/>
    </vehicle>

    <vehicle id="f_1.47" depart="142.00" arrival="197.00">
        <route edges="Node2_7_SB Node2_5_SB Node4_5_WB Node1_4_NB"/>
    </vehicle>

    <vehicle id="f_0.36" depart="110.00" arrival="198.00">
        <route edges="Node4_5_EB Node5_6_EB Node3_6_NB Node2_3_WB Node1_2_WB"/>
    </vehicle>

    <vehicle id="f_0.38" depart="116.00" arrival="198.00">
        <route edges="Node4_5_EB Node5_6_EB Node3_6_NB Node2_3_WB Node1_2_WB"/>
    </vehicle>

    <vehicle id="f_1.46" depart="139.00" arrival="198.00">
        <route edges="Node2_7_SB Node2_5_SB Node4_5_WB Node1_4_NB"/>
    </vehicle>

    <vehicle id="f_2.32" depart="101.00" arrival="199.00">
        <route edges="Node1_2_EB Node2_3_EB Node3_6_SB Node5_6_WB Node4_5_WB"/>
    </vehicle>

    <vehicle id="f_0.34" depart="104.00" arrival="199.00">
        <route edges="Node4_5_EB Node5_6_EB Node3_6_NB Node2_3_WB Node1_2_WB"/>
    </vehicle>

    <vehicle id="f_2.34" depart="107.00" arrival="200.00">
        <route edges="Node1_2_EB Node2_3_EB Node3_6_SB Node5_6_WB Node4_5_WB"/>
    </vehicle>

    <vehicle id="f_2.35" depart="110.00" arrival="200.00">
        <route edges="Node1_2_EB Node2_3_EB Node3_6_SB Node5_6_WB Node4_5_WB"/>
    </vehicle>

    <vehicle id="f_0.39" depart="119.00" arrival="200.00">
        <route edges="Node4_5_EB Node5_6_EB Node3_6_NB Node2_3_WB Node1_2_WB"/>
    </vehicle>

    <vehicle id="f_2.30" depart="94.00" arrival="201.00">
        <route edges="Node1_2_EB Node2_3_EB Node3_6_SB Node5_6_WB Node4_5_WB"/>
    </vehicle>

    <vehicle id="f_2.37" depart="116.00" arrival="201.00">
        <route edges="Node1_2_EB Node2_3_EB Node3_6_SB Node5_6_WB Node4_5_WB"/>
    </vehicle>

    <vehicle id="f_0.37" depart="113.00" arrival="202.00">
        <route edges="Node4_5_EB Node5_6_EB Node3_6_NB Node2_3_WB Node1_2_WB"/>
    </vehicle>

    <vehicle id="f_2.38" depart="119.00" arrival="202.00">
        <route edges="Node1_2_EB Node2_3_EB Node3_6_SB Node5_6_WB Node4_5_WB"/>
    </vehicle>

    <vehicle id="f_2.33" depart="104.00" arrival="203.00">
        <route edges="Node1_2_EB Node2_3_EB Node3_6_SB Node5_6_WB Node4_5_WB"/>
    </vehicle>

    <vehicle id="f_2.39" depart="122.00" arrival="203.00">
        <route edges="Node1_2_EB Node2_3_EB Node3_6_SB Node5_6_WB Node4_5_WB"/>
    </vehicle>

    <vehicle id="f_2.36" depart="113.00" arrival="204.00">
        <route edges="Node1_2_EB Node2_3_EB Node3_6_SB Node5_6_WB Node4_5_WB"/>
    </vehicle>

    <vehicle id="f_2.41" depart="128.00" arrival="218.00">
        <route edges="Node1_2_EB Node2_3_EB Node3_6_SB Node5_6_WB Node4_5_WB"/>
    </vehicle>

    <vehicle id="f_2.43" depart="134.00" arrival="219.00">
        <route edges="Node1_2_EB Node2_3_EB Node3_6_SB Node5_6_WB Node4_5_WB"/>
    </vehicle>

    <vehicle id="f_0.41" depart="125.00" arrival="220.00">
        <route edges="Node4_5_EB Node5_6_EB Node3_6_NB Node2_3_WB Node1_2_WB"/>
    </vehicle>

    <vehicle id="f_2.46" depart="143.00" arrival="220.00">
        <route edges="Node1_2_EB Node2_3_EB Node3_6_SB Node5_6_WB Node4_5_WB"/>
    </vehicle>

    <vehicle id="f_0.43" depart="131.00" arrival="221.00">
        <route edges="Node4_5_EB Node5_6_EB Node3_6_NB Node2_3_WB Node1_2_WB"/>
    </vehicle>

    <vehicle id="f_2.44" depart="137.00" arrival="221.00">
        <route edges="Node1_2_EB Node2_3_EB Node3_6_SB Node5_6_WB Node4_5_WB"/>
    </vehicle>

    <vehicle id="f_2.40" depart="125.00" arrival="223.00">
        <route edges="Node1_2_EB Node2_3_EB Node3_6_SB Node5_6_WB Node4_5_WB"/>
    </vehicle>

    <vehicle id="f_0.46" depart="140.00" arrival="223.00">
        <route edges="Node4_5_EB Node5_6_EB Node3_6_NB Node2_3_WB Node1_2_WB"/>
    </vehicle>

    <vehicle id="f_0.40" depart="122.00" arrival="224.00">
        <route edges="Node4_5_EB Node5_6_EB Node3_6_NB Node2_3_WB Node1_2_WB"/>
    </vehicle>

    <vehicle id="f_0.44" depart="134.00" arrival="224.00">
        <route edges="Node4_5_EB Node5_6_EB Node3_6_NB Node2_3_WB Node1_2_WB"/>
    </vehicle>

    <vehicle id="f_2.47" depart="146.00" arrival="224.00">
        <route edges="Node1_2_EB Node2_3_EB Node3_6_SB Node5_6_WB Node4_5_WB"/>
    </vehicle>

    <vehicle id="f_0.42" depart="128.00" arrival="225.00">
        <route edges="Node4_5_EB Node5_6_EB Node3_6_NB Node2_3_WB Node1_2_WB"/>
    </vehicle>

    <vehicle id="f_2.42" depart="131.00" arrival="225.00">
        <route edges="Node1_2_EB Node2_3_EB Node3_6_SB Node5_6_WB Node4_5_WB"/>
    </vehicle>

    <vehicle id="f_2.49" depart="152.00" arrival="225.00">
        <route edges="Node1_2_EB Node2_3_EB Node3_6_SB Node5_6_WB Node4_5_WB"/>
    </vehicle>

    <vehicle id="f_0.47" depart="143.00" arrival="226.00">
        <route edges="Node4_5_EB Node5_6_EB Node3_6_NB Node2_3_WB Node1_2_WB"/>
    </vehicle>

    <vehicle id="f_0.49" depart="149.00" arrival="226.00">
        <route edges="Node4_5_EB Node5_6_EB Node3_6_NB Node2_3_WB Node1_2_WB"/>
    </vehicle>

    <vehicle id="f_0.45" depart="137.00" arrival="227.00">
        <route edges="Node4_5_EB Node5_6_EB Node3_6_NB Node2_3_WB Node1_2_WB"/>
    </vehicle>

    <vehicle id="f_2.50" depart="155.00" arrival="227.00">
        <route edges="Node1_2_EB Node2_3_EB Node3_6_SB Node5_6_WB Node4_5_WB"/>
    </vehicle>

    <vehicle id="f_0.52" depart="158.00" arrival="227.00">
        <route edges="Node4_5_EB Node5_6_EB Node3_6_NB Node2_3_WB Node1_2_WB"/>
    </vehicle>

    <vehicle id="f_2.45" depart="140.00" arrival="229.00">
        <route edges="Node1_2_EB Node2_3_EB Node3_6_SB Node5_6_WB Node4_5_WB"/>
    </vehicle>

    <vehicle id="f_0.50" depart="152.00" arrival="229.00">
        <route edges="Node4_5_EB Node5_6_EB Node3_6_NB Node2_3_WB Node1_2_WB"/>
    </vehicle>

    <vehicle id="f_0.53" depart="161.00" arrival="229.00">
        <route edges="Node4_5_EB Node5_6_EB Node3_6_NB Node2_3_WB Node1_2_WB"/>
    </vehicle>

    <vehicle id="f_2.53" depart="165.00" arrival="230.00">
        <route edges="Node1_2_EB Node2_3_EB Node3_6_SB Node5_6_WB Node4_5_WB"/>
    </vehicle>

    <vehicle id="f_2.52" depart="161.00" arrival="231.00">
        <route edges="Node1_2_EB Node2_3_EB Node3_6_SB Node5_6_WB Node4_5_WB"/>
    </vehicle>

    <vehicle id="f_0.55" depart="166.00" arrival="232.00">
        <route edges="Node4_5_EB Node5_6_EB Node3_6_NB Node2_3_WB Node1_2_WB"/>
    </vehicle>

    <vehicle id="f_2.55" depart="171.00" arrival="232.00">
        <route edges="Node1_2_EB Node2_3_EB Node3_6_SB Node5_6_WB Node4_5_WB"/>
    </vehicle>

    <vehicle id="f_0.56" depart="169.00" arrival="232.00">
        <route edges="Node4_5_EB Node5_6_EB Node3_6_NB Node2_3_WB Node1_2_WB"/>
    </vehicle>

    <vehicle id="f_1.49" depart="148.00" arrival="246.00">
        <route edges="Node2_7_SB Node2_5_SB Node4_5_WB Node1_4_NB"/>
    </vehicle>

    <vehicle id="f_1.50" depart="151.00" arrival="246.00">
        <route edges="Node2_7_SB Node2_5_SB Node4_5_WB Node1_4_NB"/>
    </vehicle>

    <vehicle id="f_1.51" depart="154.00" arrival="248.00">
        <route edges="Node2_7_SB Node2_5_SB Node4_5_WB Node1_4_NB"/>
    </vehicle>

    <vehicle id="f_1.52" depart="157.00" arrival="248.00">
        <route edges="Node2_7_SB Node2_5_SB Node4_5_WB Node1_4_NB"/>
    </vehicle>

    <vehicle id="f_1.56" depart="169.00" arrival="257.00">
        <route edges="Node2_7_SB Node2_5_SB Node4_5_WB Node1_4_NB"/>
    </vehicle>

    <vehicle id="f_1.60" depart="182.00" arrival="258.00">
        <route edges="Node2_7_SB Node2_5_SB Node4_5_WB Node1_4_NB"/>
    </vehicle>

    <vehicle id="f_1.54" depart="163.00" arrival="259.00">
        <route edges="Node2_7_SB Node2_5_SB Node4_5_WB Node1_4_NB"/>
    </vehicle>

    <vehicle id="f_1.53" depart="160.00" arrival="260.00">
        <route edges="Node2_7_SB Node2_5_SB Node4_5_WB Node1_4_NB"/>
    </vehicle>

    <vehicle id="f_1.55" depart="166.00" arrival="262.00">
        <route edges="Node2_7_SB Node2_5_SB Node4_5_WB Node1_4_NB"/>
    </vehicle>

    <vehicle id="f_1.59" depart="179.00" arrival="262.00">
        <route edges="Node2_7_SB Node2_5_SB Node4_5_WB Node1_4_NB"/>
    </vehicle>

    <vehicle id="f_1.57" depart="173.00" arrival="264.00">
        <route edges="Node2_7_SB Node2_5_SB Node4_5_WB Node1_4_NB"/>
    </vehicle>

    <vehicle id="f_1.58" depart="176.00" arrival="267.00">
        <route edges="Node2_7_SB Node2_5_SB Node4_5_WB Node1_4_NB"/>
    </vehicle>

    <vehicle id="f_1.62" depart="188.00" arrival="268.00">
        <route edges="Node2_7_SB Node2_5_SB Node4_5_WB Node1_4_NB"/>
    </vehicle>

    <vehicle id="f_1.64" depart="194.00" arrival="268.00">
        <route edges="Node2_7_SB Node2_5_SB Node4_5_WB Node1_4_NB"/>
    </vehicle>

    <vehicle id="f_1.65" depart="197.00" arrival="270.00">
        <route edges="Node2_7_SB Node2_5_SB Node4_5_WB Node1_4_NB"/>
    </vehicle>

    <vehicle id="f_1.61" depart="185.00" arrival="271.00">
        <route edges="Node2_7_SB Node2_5_SB Node4_5_WB Node1_4_NB"/>
    </vehicle>

    <vehicle id="f_1.67" depart="203.00" arrival="272.00">
        <route edges="Node2_7_SB Node2_5_SB Node4_5_WB Node1_4_NB"/>
    </vehicle>

    <vehicle id="f_1.63" depart="191.00" arrival="274.00">
        <route edges="Node2_7_SB Node2_5_SB Node4_5_WB Node1_4_NB"/>
    </vehicle>

    <vehicle id="f_1.69" depart="209.00" arrival="275.00">
        <route edges="Node2_7_SB Node2_5_SB Node4_5_WB Node1_4_NB"/>
    </vehicle>

    <vehicle id="f_1.70" depart="212.00" arrival="276.00">
        <route edges="Node2_7_SB Node2_5_SB Node4_5_WB Node1_4_NB"/>
    </vehicle>

    <vehicle id="f_1.66" depart="200.00" arrival="279.00">
        <route edges="Node2_7_SB Node2_5_SB Node4_5_WB Node1_4_NB"/>
    </vehicle>

    <vehicle id="f_1.72" depart="218.00" arrival="279.00">
        <route edges="Node2_7_SB Node2_5_SB Node4_5_WB Node1_4_NB"/>
    </vehicle>

    <vehicle id="f_1.68" depart="206.00" arrival="281.00">
        <route edges="Node2_7_SB Node2_5_SB Node4_5_WB Node1_4_NB"/>
    </vehicle>

    <vehicle id="f_1.74" depart="224.00" arrival="281.00">
        <route edges="Node2_7_SB Node2_5_SB Node4_5_WB Node1_4_NB"/>
    </vehicle>

    <vehicle id="f_2.57" depart="180.00" arrival="282.00">
        <route edges="Node1_2_EB Node2_3_EB Node3_6_SB Node5_6_WB Node4_5_WB"/>
    </vehicle>

    <vehicle id="f_0.60" depart="182.00" arrival="282.00">
        <route edges="Node4_5_EB Node5_6_EB Node3_6_NB Node2_3_WB Node1_2_WB"/>
    </vehicle>

    <vehicle id="f_2.56" depart="175.00" arrival="283.00">
        <route edges="Node1_2_EB Node2_3_EB Node3_6_SB Node5_6_WB Node4_5_WB"/>
    </vehicle>

    <vehicle id="f_0.58" depart="175.00" arrival="283.00">
        <route edges="Node4_5_EB Node5_6_EB Node3_6_NB Node2_3_WB Node1_2_WB"/>
    </vehicle>

    <vehicle id="f_2.48" depart="149.00" arrival="284.00">
        <route edges="Node1_2_EB Node2_3_EB Node3_6_SB Node5_6_WB Node4_5_WB"/>
    </vehicle>

    <vehicle id="f_2.54" depart="167.00" arrival="284.00">
        <route edges="Node1_2_EB Node2_3_EB Node3_6_SB Node5_6_WB Node4_5_WB"/>
    </vehicle>

    <vehicle id="f_2.58" depart="185.00" arrival="284.00">
        <route edges="Node1_2_EB Node2_3_EB Node3_6_SB Node5_6_WB Node4_5_WB"/>
    </vehicle>

    <vehicle id="f_0.59" depart="179.00" arrival="284.00">
        <route edges="Node4_5_EB Node5_6_EB Node3_6_NB Node2_3_WB Node1_2_WB"/>
    </vehicle>

    <vehicle id="f_0.61" depart="185.00" arrival="284.00">
        <route edges="Node4_5_EB Node5_6_EB Node3_6_NB Node2_3_WB Node1_2_WB"/>
    </vehicle>

    <vehicle id="f_1.77" depart="233.00" arrival="284.00">
        <route edges="Node2_7_SB Node2_5_SB Node4_5_WB Node1_4_NB"/>
    </vehicle>

    <vehicle id="f_0.48" depart="146.00" arrival="285.00">
        <route edges="Node4_5_EB Node5_6_EB Node3_6_NB Node2_3_WB Node1_2_WB"/>
    </vehicle>

    <vehicle id="f_2.51" depart="158.00" arrival="286.00">
        <route edges="Node1_2_EB Node2_3_EB Node3_6_SB Node5_6_WB Node4_5_WB"/>
    </vehicle>

    <vehicle id="f_2.59" depart="189.00" arrival="286.00">
        <route edges="Node1_2_EB Node2_3_EB Node3_6_SB Node5_6_WB Node4_5_WB"/>
    </vehicle>

    <vehicle id="f_0.62" depart="188.00" arrival="286.00">
        <route edges="Node4_5_EB Node5_6_EB Node3_6_NB Node2_3_WB Node1_2_WB"/>
    </vehicle>

    <vehicle id="f_1.71" depart="215.00" arrival="286.00">
        <route edges="Node2_7_SB Node2_5_SB Node4_5_WB Node1_4_NB"/>
    </vehicle>

    <vehicle id="f_1.78" depart="236.00" arrival="286.00">